 # L12 Ni3Al oriented X=[100] Y=[010] Z=[001].
 
       31600  atoms
           2  atom types
 
       0.00000000       282.03000000  xlo xhi
      -89.25000000      124.95000000  ylo yhi
      -89.00000000      124.95000000  zlo zhi
 
Masses
 
           1   58.69340000    # Ni
           2   26.98153860    # Al
 
Atoms # atomic
 
         1    1        1.78500000       1.78500000       0.00000000
         2    1        0.00000000       1.78500000       1.78500000
         3    1        1.78500000       0.00000000       1.78500000
         4    1        0.00000000       0.00000000       0.00000000
         5    1        1.78500000       5.35500000       0.00000000
         6    1        0.00000000       5.35500000       1.78500000
         7    1        1.78500000       3.57000000       1.78500000
         8    1        0.00000000       3.57000000       0.00000000
         9    1        1.78500000       8.92500000       0.00000000
        10    1        0.00000000       8.92500000       1.78500000
        11    1        1.78500000       7.14000000       1.78500000
        12    1        0.00000000       7.14000000       0.00000000
        13    1        1.78500000      12.49500000       0.00000000
        14    1        0.00000000      12.49500000       1.78500000
        15    1        1.78500000      10.71000000       1.78500000
        16    1        0.00000000      10.71000000       0.00000000
        17    1        1.78500000      16.06500000       0.00000000
        18    1        0.00000000      16.06500000       1.78500000
        19    1        1.78500000      14.28000000       1.78500000
        20    1        0.00000000      14.28000000       0.00000000
        21    1        1.78500000      19.63500000       0.00000000
        22    1        0.00000000      19.63500000       1.78500000
        23    1        1.78500000      17.85000000       1.78500000
        24    1        0.00000000      17.85000000       0.00000000
        25    1        1.78500000      23.20500000       0.00000000
        26    1        0.00000000      23.20500000       1.78500000
        27    1        1.78500000      21.42000000       1.78500000
        28    1        0.00000000      21.42000000       0.00000000
        29    1        1.78500000      26.77500000       0.00000000
        30    1        0.00000000      26.77500000       1.78500000
        31    1        1.78500000      24.99000000       1.78500000
        32    1        0.00000000      24.99000000       0.00000000
        33    1        1.78500000      30.34500000       0.00000000
        34    1        0.00000000      30.34500000       1.78500000
        35    1        1.78500000      28.56000000       1.78500000
        36    1        0.00000000      28.56000000       0.00000000
        37    1        1.78500000      33.91500000       0.00000000
        38    1        0.00000000      33.91500000       1.78500000
        39    1        1.78500000      32.13000000       1.78500000
        40    1        0.00000000      32.13000000       0.00000000
        41    1        1.78500000       1.78500000       3.57000000
        42    1        0.00000000       1.78500000       5.35500000
        43    1        1.78500000       0.00000000       5.35500000
        44    1        0.00000000       0.00000000       3.57000000
        45    1        1.78500000       5.35500000       3.57000000
        46    1        0.00000000       5.35500000       5.35500000
        47    1        1.78500000       3.57000000       5.35500000
        48    1        0.00000000       3.57000000       3.57000000
        49    1        1.78500000       8.92500000       3.57000000
        50    1        0.00000000       8.92500000       5.35500000
        51    1        1.78500000       7.14000000       5.35500000
        52    1        0.00000000       7.14000000       3.57000000
        53    1        1.78500000      12.49500000       3.57000000
        54    1        0.00000000      12.49500000       5.35500000
        55    1        1.78500000      10.71000000       5.35500000
        56    1        0.00000000      10.71000000       3.57000000
        57    1        1.78500000      16.06500000       3.57000000
        58    1        0.00000000      16.06500000       5.35500000
        59    1        1.78500000      14.28000000       5.35500000
        60    1        0.00000000      14.28000000       3.57000000
        61    1        1.78500000      19.63500000       3.57000000
        62    1        0.00000000      19.63500000       5.35500000
        63    1        1.78500000      17.85000000       5.35500000
        64    1        0.00000000      17.85000000       3.57000000
        65    1        1.78500000      23.20500000       3.57000000
        66    1        0.00000000      23.20500000       5.35500000
        67    1        1.78500000      21.42000000       5.35500000
        68    1        0.00000000      21.42000000       3.57000000
        69    1        1.78500000      26.77500000       3.57000000
        70    1        0.00000000      26.77500000       5.35500000
        71    1        1.78500000      24.99000000       5.35500000
        72    1        0.00000000      24.99000000       3.57000000
        73    1        1.78500000      30.34500000       3.57000000
        74    1        0.00000000      30.34500000       5.35500000
        75    1        1.78500000      28.56000000       5.35500000
        76    1        0.00000000      28.56000000       3.57000000
        77    1        1.78500000      33.91500000       3.57000000
        78    1        0.00000000      33.91500000       5.35500000
        79    1        1.78500000      32.13000000       5.35500000
        80    1        0.00000000      32.13000000       3.57000000
        81    1        1.78500000       1.78500000       7.14000000
        82    1        0.00000000       1.78500000       8.92500000
        83    1        1.78500000       0.00000000       8.92500000
        84    1        0.00000000       0.00000000       7.14000000
        85    1        1.78500000       5.35500000       7.14000000
        86    1        0.00000000       5.35500000       8.92500000
        87    1        1.78500000       3.57000000       8.92500000
        88    1        0.00000000       3.57000000       7.14000000
        89    1        1.78500000       8.92500000       7.14000000
        90    1        0.00000000       8.92500000       8.92500000
        91    1        1.78500000       7.14000000       8.92500000
        92    1        0.00000000       7.14000000       7.14000000
        93    1        1.78500000      12.49500000       7.14000000
        94    1        0.00000000      12.49500000       8.92500000
        95    1        1.78500000      10.71000000       8.92500000
        96    1        0.00000000      10.71000000       7.14000000
        97    1        1.78500000      16.06500000       7.14000000
        98    1        0.00000000      16.06500000       8.92500000
        99    1        1.78500000      14.28000000       8.92500000
       100    1        0.00000000      14.28000000       7.14000000
       101    1        1.78500000      19.63500000       7.14000000
       102    1        0.00000000      19.63500000       8.92500000
       103    1        1.78500000      17.85000000       8.92500000
       104    1        0.00000000      17.85000000       7.14000000
       105    1        1.78500000      23.20500000       7.14000000
       106    1        0.00000000      23.20500000       8.92500000
       107    1        1.78500000      21.42000000       8.92500000
       108    1        0.00000000      21.42000000       7.14000000
       109    1        1.78500000      26.77500000       7.14000000
       110    1        0.00000000      26.77500000       8.92500000
       111    1        1.78500000      24.99000000       8.92500000
       112    1        0.00000000      24.99000000       7.14000000
       113    1        1.78500000      30.34500000       7.14000000
       114    1        0.00000000      30.34500000       8.92500000
       115    1        1.78500000      28.56000000       8.92500000
       116    1        0.00000000      28.56000000       7.14000000
       117    1        1.78500000      33.91500000       7.14000000
       118    1        0.00000000      33.91500000       8.92500000
       119    1        1.78500000      32.13000000       8.92500000
       120    1        0.00000000      32.13000000       7.14000000
       121    1        1.78500000       1.78500000      10.71000000
       122    1        0.00000000       1.78500000      12.49500000
       123    1        1.78500000       0.00000000      12.49500000
       124    1        0.00000000       0.00000000      10.71000000
       125    1        1.78500000       5.35500000      10.71000000
       126    1        0.00000000       5.35500000      12.49500000
       127    1        1.78500000       3.57000000      12.49500000
       128    1        0.00000000       3.57000000      10.71000000
       129    1        1.78500000       8.92500000      10.71000000
       130    1        0.00000000       8.92500000      12.49500000
       131    1        1.78500000       7.14000000      12.49500000
       132    1        0.00000000       7.14000000      10.71000000
       133    1        1.78500000      12.49500000      10.71000000
       134    1        0.00000000      12.49500000      12.49500000
       135    1        1.78500000      10.71000000      12.49500000
       136    1        0.00000000      10.71000000      10.71000000
       137    1        1.78500000      16.06500000      10.71000000
       138    1        0.00000000      16.06500000      12.49500000
       139    1        1.78500000      14.28000000      12.49500000
       140    1        0.00000000      14.28000000      10.71000000
       141    1        1.78500000      19.63500000      10.71000000
       142    1        0.00000000      19.63500000      12.49500000
       143    1        1.78500000      17.85000000      12.49500000
       144    1        0.00000000      17.85000000      10.71000000
       145    1        1.78500000      23.20500000      10.71000000
       146    1        0.00000000      23.20500000      12.49500000
       147    1        1.78500000      21.42000000      12.49500000
       148    1        0.00000000      21.42000000      10.71000000
       149    1        1.78500000      26.77500000      10.71000000
       150    1        0.00000000      26.77500000      12.49500000
       151    1        1.78500000      24.99000000      12.49500000
       152    1        0.00000000      24.99000000      10.71000000
       153    1        1.78500000      30.34500000      10.71000000
       154    1        0.00000000      30.34500000      12.49500000
       155    1        1.78500000      28.56000000      12.49500000
       156    1        0.00000000      28.56000000      10.71000000
       157    1        1.78500000      33.91500000      10.71000000
       158    1        0.00000000      33.91500000      12.49500000
       159    1        1.78500000      32.13000000      12.49500000
       160    1        0.00000000      32.13000000      10.71000000
       161    1        1.78500000       1.78500000      14.28000000
       162    1        0.00000000       1.78500000      16.06500000
       163    1        1.78500000       0.00000000      16.06500000
       164    1        0.00000000       0.00000000      14.28000000
       165    1        1.78500000       5.35500000      14.28000000
       166    1        0.00000000       5.35500000      16.06500000
       167    1        1.78500000       3.57000000      16.06500000
       168    1        0.00000000       3.57000000      14.28000000
       169    1        1.78500000       8.92500000      14.28000000
       170    1        0.00000000       8.92500000      16.06500000
       171    1        1.78500000       7.14000000      16.06500000
       172    1        0.00000000       7.14000000      14.28000000
       173    1        1.78500000      12.49500000      14.28000000
       174    1        0.00000000      12.49500000      16.06500000
       175    1        1.78500000      10.71000000      16.06500000
       176    1        0.00000000      10.71000000      14.28000000
       177    1        1.78500000      16.06500000      14.28000000
       178    1        0.00000000      16.06500000      16.06500000
       179    1        1.78500000      14.28000000      16.06500000
       180    1        0.00000000      14.28000000      14.28000000
       181    1        1.78500000      19.63500000      14.28000000
       182    1        0.00000000      19.63500000      16.06500000
       183    1        1.78500000      17.85000000      16.06500000
       184    1        0.00000000      17.85000000      14.28000000
       185    1        1.78500000      23.20500000      14.28000000
       186    1        0.00000000      23.20500000      16.06500000
       187    1        1.78500000      21.42000000      16.06500000
       188    1        0.00000000      21.42000000      14.28000000
       189    1        1.78500000      26.77500000      14.28000000
       190    1        0.00000000      26.77500000      16.06500000
       191    1        1.78500000      24.99000000      16.06500000
       192    1        0.00000000      24.99000000      14.28000000
       193    1        1.78500000      30.34500000      14.28000000
       194    1        0.00000000      30.34500000      16.06500000
       195    1        1.78500000      28.56000000      16.06500000
       196    1        0.00000000      28.56000000      14.28000000
       197    1        1.78500000      33.91500000      14.28000000
       198    1        0.00000000      33.91500000      16.06500000
       199    1        1.78500000      32.13000000      16.06500000
       200    1        0.00000000      32.13000000      14.28000000
       201    1        1.78500000       1.78500000      17.85000000
       202    1        0.00000000       1.78500000      19.63500000
       203    1        1.78500000       0.00000000      19.63500000
       204    1        0.00000000       0.00000000      17.85000000
       205    1        1.78500000       5.35500000      17.85000000
       206    1        0.00000000       5.35500000      19.63500000
       207    1        1.78500000       3.57000000      19.63500000
       208    1        0.00000000       3.57000000      17.85000000
       209    1        1.78500000       8.92500000      17.85000000
       210    1        0.00000000       8.92500000      19.63500000
       211    1        1.78500000       7.14000000      19.63500000
       212    1        0.00000000       7.14000000      17.85000000
       213    1        1.78500000      12.49500000      17.85000000
       214    1        0.00000000      12.49500000      19.63500000
       215    1        1.78500000      10.71000000      19.63500000
       216    1        0.00000000      10.71000000      17.85000000
       217    1        1.78500000      16.06500000      17.85000000
       218    1        0.00000000      16.06500000      19.63500000
       219    1        1.78500000      14.28000000      19.63500000
       220    1        0.00000000      14.28000000      17.85000000
       221    1        1.78500000      19.63500000      17.85000000
       222    1        0.00000000      19.63500000      19.63500000
       223    1        1.78500000      17.85000000      19.63500000
       224    1        0.00000000      17.85000000      17.85000000
       225    1        1.78500000      23.20500000      17.85000000
       226    1        0.00000000      23.20500000      19.63500000
       227    1        1.78500000      21.42000000      19.63500000
       228    1        0.00000000      21.42000000      17.85000000
       229    1        1.78500000      26.77500000      17.85000000
       230    1        0.00000000      26.77500000      19.63500000
       231    1        1.78500000      24.99000000      19.63500000
       232    1        0.00000000      24.99000000      17.85000000
       233    1        1.78500000      30.34500000      17.85000000
       234    1        0.00000000      30.34500000      19.63500000
       235    1        1.78500000      28.56000000      19.63500000
       236    1        0.00000000      28.56000000      17.85000000
       237    1        1.78500000      33.91500000      17.85000000
       238    1        0.00000000      33.91500000      19.63500000
       239    1        1.78500000      32.13000000      19.63500000
       240    1        0.00000000      32.13000000      17.85000000
       241    1        1.78500000       1.78500000      21.42000000
       242    1        0.00000000       1.78500000      23.20500000
       243    1        1.78500000       0.00000000      23.20500000
       244    1        0.00000000       0.00000000      21.42000000
       245    1        1.78500000       5.35500000      21.42000000
       246    1        0.00000000       5.35500000      23.20500000
       247    1        1.78500000       3.57000000      23.20500000
       248    1        0.00000000       3.57000000      21.42000000
       249    1        1.78500000       8.92500000      21.42000000
       250    1        0.00000000       8.92500000      23.20500000
       251    1        1.78500000       7.14000000      23.20500000
       252    1        0.00000000       7.14000000      21.42000000
       253    1        1.78500000      12.49500000      21.42000000
       254    1        0.00000000      12.49500000      23.20500000
       255    1        1.78500000      10.71000000      23.20500000
       256    1        0.00000000      10.71000000      21.42000000
       257    1        1.78500000      16.06500000      21.42000000
       258    1        0.00000000      16.06500000      23.20500000
       259    1        1.78500000      14.28000000      23.20500000
       260    1        0.00000000      14.28000000      21.42000000
       261    1        1.78500000      19.63500000      21.42000000
       262    1        0.00000000      19.63500000      23.20500000
       263    1        1.78500000      17.85000000      23.20500000
       264    1        0.00000000      17.85000000      21.42000000
       265    1        1.78500000      23.20500000      21.42000000
       266    1        0.00000000      23.20500000      23.20500000
       267    1        1.78500000      21.42000000      23.20500000
       268    1        0.00000000      21.42000000      21.42000000
       269    1        1.78500000      26.77500000      21.42000000
       270    1        0.00000000      26.77500000      23.20500000
       271    1        1.78500000      24.99000000      23.20500000
       272    1        0.00000000      24.99000000      21.42000000
       273    1        1.78500000      30.34500000      21.42000000
       274    1        0.00000000      30.34500000      23.20500000
       275    1        1.78500000      28.56000000      23.20500000
       276    1        0.00000000      28.56000000      21.42000000
       277    1        1.78500000      33.91500000      21.42000000
       278    1        0.00000000      33.91500000      23.20500000
       279    1        1.78500000      32.13000000      23.20500000
       280    1        0.00000000      32.13000000      21.42000000
       281    1        1.78500000       1.78500000      24.99000000
       282    1        0.00000000       1.78500000      26.77500000
       283    1        1.78500000       0.00000000      26.77500000
       284    1        0.00000000       0.00000000      24.99000000
       285    1        1.78500000       5.35500000      24.99000000
       286    1        0.00000000       5.35500000      26.77500000
       287    1        1.78500000       3.57000000      26.77500000
       288    1        0.00000000       3.57000000      24.99000000
       289    1        1.78500000       8.92500000      24.99000000
       290    1        0.00000000       8.92500000      26.77500000
       291    1        1.78500000       7.14000000      26.77500000
       292    1        0.00000000       7.14000000      24.99000000
       293    1        1.78500000      12.49500000      24.99000000
       294    1        0.00000000      12.49500000      26.77500000
       295    1        1.78500000      10.71000000      26.77500000
       296    1        0.00000000      10.71000000      24.99000000
       297    1        1.78500000      16.06500000      24.99000000
       298    1        0.00000000      16.06500000      26.77500000
       299    1        1.78500000      14.28000000      26.77500000
       300    1        0.00000000      14.28000000      24.99000000
       301    1        1.78500000      19.63500000      24.99000000
       302    1        0.00000000      19.63500000      26.77500000
       303    1        1.78500000      17.85000000      26.77500000
       304    1        0.00000000      17.85000000      24.99000000
       305    1        1.78500000      23.20500000      24.99000000
       306    1        0.00000000      23.20500000      26.77500000
       307    1        1.78500000      21.42000000      26.77500000
       308    1        0.00000000      21.42000000      24.99000000
       309    1        1.78500000      26.77500000      24.99000000
       310    1        0.00000000      26.77500000      26.77500000
       311    1        1.78500000      24.99000000      26.77500000
       312    1        0.00000000      24.99000000      24.99000000
       313    1        1.78500000      30.34500000      24.99000000
       314    1        0.00000000      30.34500000      26.77500000
       315    1        1.78500000      28.56000000      26.77500000
       316    1        0.00000000      28.56000000      24.99000000
       317    1        1.78500000      33.91500000      24.99000000
       318    1        0.00000000      33.91500000      26.77500000
       319    1        1.78500000      32.13000000      26.77500000
       320    1        0.00000000      32.13000000      24.99000000
       321    1        1.78500000       1.78500000      28.56000000
       322    1        0.00000000       1.78500000      30.34500000
       323    1        1.78500000       0.00000000      30.34500000
       324    1        0.00000000       0.00000000      28.56000000
       325    1        1.78500000       5.35500000      28.56000000
       326    1        0.00000000       5.35500000      30.34500000
       327    1        1.78500000       3.57000000      30.34500000
       328    1        0.00000000       3.57000000      28.56000000
       329    1        1.78500000       8.92500000      28.56000000
       330    1        0.00000000       8.92500000      30.34500000
       331    1        1.78500000       7.14000000      30.34500000
       332    1        0.00000000       7.14000000      28.56000000
       333    1        1.78500000      12.49500000      28.56000000
       334    1        0.00000000      12.49500000      30.34500000
       335    1        1.78500000      10.71000000      30.34500000
       336    1        0.00000000      10.71000000      28.56000000
       337    1        1.78500000      16.06500000      28.56000000
       338    1        0.00000000      16.06500000      30.34500000
       339    1        1.78500000      14.28000000      30.34500000
       340    1        0.00000000      14.28000000      28.56000000
       341    1        1.78500000      19.63500000      28.56000000
       342    1        0.00000000      19.63500000      30.34500000
       343    1        1.78500000      17.85000000      30.34500000
       344    1        0.00000000      17.85000000      28.56000000
       345    1        1.78500000      23.20500000      28.56000000
       346    1        0.00000000      23.20500000      30.34500000
       347    1        1.78500000      21.42000000      30.34500000
       348    1        0.00000000      21.42000000      28.56000000
       349    1        1.78500000      26.77500000      28.56000000
       350    1        0.00000000      26.77500000      30.34500000
       351    1        1.78500000      24.99000000      30.34500000
       352    1        0.00000000      24.99000000      28.56000000
       353    1        1.78500000      30.34500000      28.56000000
       354    1        0.00000000      30.34500000      30.34500000
       355    1        1.78500000      28.56000000      30.34500000
       356    1        0.00000000      28.56000000      28.56000000
       357    1        1.78500000      33.91500000      28.56000000
       358    1        0.00000000      33.91500000      30.34500000
       359    1        1.78500000      32.13000000      30.34500000
       360    1        0.00000000      32.13000000      28.56000000
       361    1        1.78500000       1.78500000      32.13000000
       362    1        0.00000000       1.78500000      33.91500000
       363    1        1.78500000       0.00000000      33.91500000
       364    1        0.00000000       0.00000000      32.13000000
       365    1        1.78500000       5.35500000      32.13000000
       366    1        0.00000000       5.35500000      33.91500000
       367    1        1.78500000       3.57000000      33.91500000
       368    1        0.00000000       3.57000000      32.13000000
       369    1        1.78500000       8.92500000      32.13000000
       370    1        0.00000000       8.92500000      33.91500000
       371    1        1.78500000       7.14000000      33.91500000
       372    1        0.00000000       7.14000000      32.13000000
       373    1        1.78500000      12.49500000      32.13000000
       374    1        0.00000000      12.49500000      33.91500000
       375    1        1.78500000      10.71000000      33.91500000
       376    1        0.00000000      10.71000000      32.13000000
       377    1        1.78500000      16.06500000      32.13000000
       378    1        0.00000000      16.06500000      33.91500000
       379    1        1.78500000      14.28000000      33.91500000
       380    1        0.00000000      14.28000000      32.13000000
       381    1        1.78500000      19.63500000      32.13000000
       382    1        0.00000000      19.63500000      33.91500000
       383    1        1.78500000      17.85000000      33.91500000
       384    1        0.00000000      17.85000000      32.13000000
       385    1        1.78500000      23.20500000      32.13000000
       386    1        0.00000000      23.20500000      33.91500000
       387    1        1.78500000      21.42000000      33.91500000
       388    1        0.00000000      21.42000000      32.13000000
       389    1        1.78500000      26.77500000      32.13000000
       390    1        0.00000000      26.77500000      33.91500000
       391    1        1.78500000      24.99000000      33.91500000
       392    1        0.00000000      24.99000000      32.13000000
       393    1        1.78500000      30.34500000      32.13000000
       394    1        0.00000000      30.34500000      33.91500000
       395    1        1.78500000      28.56000000      33.91500000
       396    1        0.00000000      28.56000000      32.13000000
       397    1        1.78500000      33.91500000      32.13000000
       398    1        0.00000000      33.91500000      33.91500000
       399    1        1.78500000      32.13000000      33.91500000
       400    1        0.00000000      32.13000000      32.13000000
       401    1        5.35500000       1.78500000       0.00000000
       402    1        3.57000000       1.78500000       1.78500000
       403    1        5.35500000       0.00000000       1.78500000
       404    1        3.57000000       0.00000000       0.00000000
       405    1        5.35500000       5.35500000       0.00000000
       406    1        3.57000000       5.35500000       1.78500000
       407    1        5.35500000       3.57000000       1.78500000
       408    1        3.57000000       3.57000000       0.00000000
       409    1        5.35500000       8.92500000       0.00000000
       410    1        3.57000000       8.92500000       1.78500000
       411    1        5.35500000       7.14000000       1.78500000
       412    1        3.57000000       7.14000000       0.00000000
       413    1        5.35500000      12.49500000       0.00000000
       414    1        3.57000000      12.49500000       1.78500000
       415    1        5.35500000      10.71000000       1.78500000
       416    1        3.57000000      10.71000000       0.00000000
       417    1        5.35500000      16.06500000       0.00000000
       418    1        3.57000000      16.06500000       1.78500000
       419    1        5.35500000      14.28000000       1.78500000
       420    1        3.57000000      14.28000000       0.00000000
       421    1        5.35500000      19.63500000       0.00000000
       422    1        3.57000000      19.63500000       1.78500000
       423    1        5.35500000      17.85000000       1.78500000
       424    1        3.57000000      17.85000000       0.00000000
       425    1        5.35500000      23.20500000       0.00000000
       426    1        3.57000000      23.20500000       1.78500000
       427    1        5.35500000      21.42000000       1.78500000
       428    1        3.57000000      21.42000000       0.00000000
       429    1        5.35500000      26.77500000       0.00000000